============================== echo of input deck ==============================
start tce_h2o

echo

geometry units bohr
H    0.000000000000000   1.579252144093028   2.174611055780858
O    0.000000000000000   0.000000000000000   0.000000000000000
H    0.000000000000000   1.579252144093028  -2.174611055780858
end

basis
H library sto-3g
O library sto-3g
end

scf
thresh 1.0e-10
tol2e 1.0e-10
singlet
rhf
end

tce
ccsd
end

task tce energy

================================================================================

 Output coordinates in a.u. (scale by  1.000000000 to convert to a.u.)

  No.       Tag          Charge          X              Y              Z
 ---- ---------------- ---------- -------------- -------------- --------------
    1 H                    1.0000     2.17461106     0.00000000     1.26340172
    2 O                    8.0000     0.00000000     0.00000000    -0.31585043
    3 H                    1.0000    -2.17461106     0.00000000     1.26340172

         Total SCF energy =    -74.753859796253

 Vector    2  Occ=2.000000D+00  E=-1.147272D+00  Symmetry=a1

 Vector    3  Occ=2.000000D+00  E=-4.319229D-01  Symmetry=b1

 Vector    4  Occ=2.000000D+00  E=-3.952463D-01  Symmetry=b2

 Vector    5  Occ=2.000000D+00  E=-3.795036D-01  Symmetry=a1

 Vector    6  Occ=0.000000D+00  E= 2.703154D-01  Symmetry=a1

 Vector    7  Occ=0.000000D+00  E= 3.553008D-01  Symmetry=b1

       Multipole analysis of the density wrt the origin
       ------------------------------------------------

     L   x y z        total         open         nuclear
     -   - - -        -----         ----         -------
     0   0 0 0     -0.000000      0.000000     10.000000

     1   1 0 0      0.000000      0.000000      0.000000
     1   0 1 0     -0.000000      0.000000      0.000000
     1   0 0 1      0.432069      0.000000      0.000000

     2   2 0 0     -3.062616      0.000000      9.457866
     2   1 1 0      0.000000      0.000000      0.000000
     2   1 0 1      0.000000      0.000000      0.000000
     2   0 2 0     -4.733292      0.000000      0.000000
     2   0 1 1     -0.000000      0.000000      0.000000

 CCSD total energy / hartree       =       -74.898652266590219
 Total times  cpu:        3.9s     wall:        1.2s
