============================== echo of input deck ==============================
START tio2_1_DEF2SVP
echo
MEMORY stack 1200 mb heap 100 mb global 2100 mb
permanent_dir /dtemp/kowalski
geometry
Ti    0.0000000    0.0000000    0.6131572
O    -1.3586178    0.0000000   -0.3066726
O     1.3586178    0.0000000   -0.3066726
end

BASIS "ao basis" PRINT
#BASIS SET: (8s,5p,2d) -> [4s,3p,2d]
O    S
   2266.1767785             -0.53431809926E-02
    340.87010191            -0.39890039230E-01
     77.363135167           -0.17853911985
     21.479644940           -0.46427684959
      6.6589433124          -0.44309745172
O    S
      0.80975975668          1.0000000
O    S
      0.25530772234          1.0000000
O    S
      0.76572453250E-01            1.0000000
O    P
     17.721504317            0.43394573193E-01
      3.8635505440           0.23094120765
      1.0480920883           0.51375311064
O    P
      0.27641544411          1.0000000
O    P
      0.69002276350E-01            1.0000000
O    D
      1.2000000000           1.0000000
O    D
      0.17992024323          1.0000000
#BASIS SET: (14s,10p,5d,1f) -> [5s,4p,2d,1f]
Ti    S
  42961.5121850              0.39127635355E-02
   6450.9759169              0.29969820489E-01
   1467.7210915              0.14836352707
    414.20997355             0.51347285324
    134.48715840             1.0335365483
     46.122209796            0.77854233930
Ti    S
     89.447762543           -0.28385401259
     10.223346060            1.6772785333
      4.1353774271           1.2411928456
Ti    S
      6.7896181452          -0.78399994518E-02
      1.1106730691           0.25495493019E-01
      0.47565975578          0.16061172892E-01
Ti    S
      0.65986956934E-01            1.0000000
Ti    S
      0.25210342250E-01            1.0000000
Ti    P
    522.03684782             0.19754179642E-01
    122.68649489             0.14460677619
     38.572903611            0.54669004165
     13.672169319            1.0531647540
      5.0118529359           0.69111213363
Ti    P
      2.4131928282           0.75803437136
      0.93252270050          1.3036241399
      0.35429058390          0.53638653300
Ti    P
      0.10156100000          1.0000000
Ti    P
      0.35788253200E-01            1.0000000
Ti    D
     23.465125957            0.26536380115E-01
      6.3332593832           0.13796453963
      2.0766489946           0.35312644228
      0.69027361954          0.48647124166
Ti    D
      0.21088738554          1.0000000
Ti    F
      0.56200000000          1.0000000
END

scf
  singlet
  rhf
  thresh 1.0e-9
  tol2e 1.0e-9
  maxiter 200
end

tce
freeze atomic
eaccsd
#ipccsd
2eorb
2emet 13
tilesize 30
attilesize 40
thresh 1.0d-5
maxiter 100
nroots 1
end

set tce:maxeorb 0.154

task tce energy

================================================================================

 Output coordinates in angstroms (scale by  1.889725989 to convert to a.u.)

  No.       Tag          Charge          X              Y              Z
 ---- ---------------- ---------- -------------- -------------- --------------
    1 Ti                  22.0000     0.00000000     0.00000000     0.38729676
    2 O                    8.0000    -1.35861780     0.00000000    -0.53253304
    3 O                    8.0000     1.35861780     0.00000000    -0.53253304

         Total SCF energy =   -997.891290780496

 Vector   10  Occ=2.000000D+00  E=-1.922879D+00  Symmetry=a1

 Vector   11  Occ=2.000000D+00  E=-1.909083D+00  Symmetry=b2

 Vector   12  Occ=2.000000D+00  E=-1.154383D+00  Symmetry=a1

 Vector   13  Occ=2.000000D+00  E=-1.135933D+00  Symmetry=b1

 Vector   14  Occ=2.000000D+00  E=-5.135799D-01  Symmetry=a1

 Vector   15  Occ=2.000000D+00  E=-4.984105D-01  Symmetry=b1

 Vector   16  Occ=2.000000D+00  E=-4.639146D-01  Symmetry=a2

 Vector   17  Occ=2.000000D+00  E=-4.432286D-01  Symmetry=a1

 Vector   18  Occ=2.000000D+00  E=-4.430296D-01  Symmetry=b2

 Vector   19  Occ=2.000000D+00  E=-4.145309D-01  Symmetry=b1

 Vector   20  Occ=0.000000D+00  E=-4.688021D-02  Symmetry=a1

 Vector   21  Occ=0.000000D+00  E= 2.072708D-02  Symmetry=b2

 Vector   22  Occ=0.000000D+00  E= 4.957823D-02  Symmetry=a1

 Vector   23  Occ=0.000000D+00  E= 5.609586D-02  Symmetry=b1

 Vector   24  Occ=0.000000D+00  E= 7.902410D-02  Symmetry=a1

 Vector   25  Occ=0.000000D+00  E= 1.141687D-01  Symmetry=a1

 Vector   26  Occ=0.000000D+00  E= 1.152440D-01  Symmetry=b2

 Vector   27  Occ=0.000000D+00  E= 1.498695D-01  Symmetry=b1

 Vector   28  Occ=0.000000D+00  E= 1.538724D-01  Symmetry=a2

 Vector   29  Occ=0.000000D+00  E= 2.146271D-01  Symmetry=a1

 Vector   30  Occ=0.000000D+00  E= 2.253019D-01  Symmetry=b1

 Vector   31  Occ=0.000000D+00  E= 2.266968D-01  Symmetry=a1

 Vector   32  Occ=0.000000D+00  E= 2.491441D-01  Symmetry=b2

 Vector   33  Occ=0.000000D+00  E= 2.509364D-01  Symmetry=a2

 Vector   34  Occ=0.000000D+00  E= 2.760831D-01  Symmetry=a1

 Vector   35  Occ=0.000000D+00  E= 2.801676D-01  Symmetry=b2

 Vector   36  Occ=0.000000D+00  E= 2.950617D-01  Symmetry=b1

 Vector   37  Occ=0.000000D+00  E= 3.018053D-01  Symmetry=a1

 Vector   38  Occ=0.000000D+00  E= 3.214677D-01  Symmetry=b1

 Vector   39  Occ=0.000000D+00  E= 4.061721D-01  Symmetry=a1

 Vector   40  Occ=0.000000D+00  E= 4.766269D-01  Symmetry=b1

 Vector   41  Occ=0.000000D+00  E= 5.666498D-01  Symmetry=b2

       Multipole analysis of the density wrt the origin
       ------------------------------------------------

     L   x y z        total         open         nuclear
     -   - - -        -----         ----         -------
     0   0 0 0     -0.000000      0.000000     38.000000

     1   1 0 0     -0.000000      0.000000      0.000000
     1   0 1 0     -0.000000      0.000000      0.000000
     1   0 0 1      3.203040      0.000000     -0.000000

     2   2 0 0    -29.340874      0.000000    105.465947
     2   1 1 0     -0.000000      0.000000      0.000000
     2   1 0 1     -0.000000      0.000000      0.000000
     2   0 2 0    -16.845025      0.000000      0.000000
     2   0 1 1      0.000000      0.000000      0.000000

 CCSD total energy / hartree       =      -998.442504292772469
 Total times  cpu:       10.1s     wall:       12.5s
