============================== echo of input deck ==============================
START tio2_2_club_cs_def2svp_b3lyp_DEF2SVP_ip
echo
MEMORY stack 1200 mb heap 100 mb global 2100 mb
permanent_dir /dtemp/kowalski
geometry
Ti    1.5800350    0.0816697    0.0000000
O     0.6579338   -1.4182969    0.0000000
O     0.5150702    0.7437215   -1.2499304
O     0.5150702    0.7437215    1.2499304
Ti   -0.8204234   -0.0468890    0.0000000
O    -2.4476859   -0.1039269    0.0000000
end

BASIS "ao basis" PRINT
#BASIS SET: (8s,5p,2d) -> [4s,3p,2d]
O    S
   2266.1767785             -0.53431809926E-02
    340.87010191            -0.39890039230E-01
     77.363135167           -0.17853911985
     21.479644940           -0.46427684959
      6.6589433124          -0.44309745172
O    S
      0.80975975668          1.0000000
O    S
      0.25530772234          1.0000000
O    S
      0.76572453250E-01            1.0000000
O    P
     17.721504317            0.43394573193E-01
      3.8635505440           0.23094120765
      1.0480920883           0.51375311064
O    P
      0.27641544411          1.0000000
O    P
      0.69002276350E-01            1.0000000
O    D
      1.2000000000           1.0000000
O    D
      0.17992024323          1.0000000
#BASIS SET: (14s,10p,5d,1f) -> [5s,4p,2d,1f]
Ti    S
  42961.5121850              0.39127635355E-02
   6450.9759169              0.29969820489E-01
   1467.7210915              0.14836352707
    414.20997355             0.51347285324
    134.48715840             1.0335365483
     46.122209796            0.77854233930
Ti    S
     89.447762543           -0.28385401259
     10.223346060            1.6772785333
      4.1353774271           1.2411928456
Ti    S
      6.7896181452          -0.78399994518E-02
      1.1106730691           0.25495493019E-01
      0.47565975578          0.16061172892E-01
Ti    S
      0.65986956934E-01            1.0000000
Ti    S
      0.25210342250E-01            1.0000000
Ti    P
    522.03684782             0.19754179642E-01
    122.68649489             0.14460677619
     38.572903611            0.54669004165
     13.672169319            1.0531647540
      5.0118529359           0.69111213363
Ti    P
      2.4131928282           0.75803437136
      0.93252270050          1.3036241399
      0.35429058390          0.53638653300
Ti    P
      0.10156100000          1.0000000
Ti    P
      0.35788253200E-01            1.0000000
Ti    D
     23.465125957            0.26536380115E-01
      6.3332593832           0.13796453963
      2.0766489946           0.35312644228
      0.69027361954          0.48647124166
Ti    D
      0.21088738554          1.0000000
Ti    F
      0.56200000000          1.0000000
END

scf
  singlet
  rhf
  thresh 1.0e-9
  tol2e 1.0e-9
  maxiter 200
end

tce
freeze atomic
eaccsd
#ipccsd
2eorb
2emet 13
tilesize 30
attilesize 40
thresh 1.0d-5
maxiter 100
nroots 1
end

set tce:maxeorb 0.6

task tce energy

================================================================================

 Output coordinates in angstroms (scale by  1.889725989 to convert to a.u.)

  No.       Tag          Charge          X              Y              Z
 ---- ---------------- ---------- -------------- -------------- --------------
    1 Ti                  22.0000     0.01197171    -1.44202221     0.00000000
    2 O                    8.0000    -1.44607009    -0.45496367     0.00000000
    3 O                    8.0000     0.72013562    -0.40714710    -1.24993040
    4 O                    8.0000     0.72013562    -0.40714710     1.24993040
    5 Ti                  22.0000    -0.01108660     0.96176567     0.00000000
    6 O                    8.0000     0.00336482     2.58996336     0.00000000

         Total SCF energy =  -1995.975027988014

 Vector   23  Occ=2.000000D+00  E=-1.226700D+00  Symmetry=a'

 Vector   24  Occ=2.000000D+00  E=-1.209500D+00  Symmetry=a"

 Vector   25  Occ=2.000000D+00  E=-1.209275D+00  Symmetry=a'

 Vector   26  Occ=2.000000D+00  E=-1.156983D+00  Symmetry=a'

 Vector   27  Occ=2.000000D+00  E=-5.772454D-01  Symmetry=a'

 Vector   28  Occ=2.000000D+00  E=-5.641644D-01  Symmetry=a"

 Vector   29  Occ=2.000000D+00  E=-5.641608D-01  Symmetry=a'

 Vector   30  Occ=2.000000D+00  E=-5.413463D-01  Symmetry=a'

 Vector   31  Occ=2.000000D+00  E=-5.409196D-01  Symmetry=a"

 Vector   32  Occ=2.000000D+00  E=-5.211257D-01  Symmetry=a'

 Vector   33  Occ=2.000000D+00  E=-4.969856D-01  Symmetry=a"

 Vector   34  Occ=2.000000D+00  E=-4.962925D-01  Symmetry=a'

 Vector   35  Occ=2.000000D+00  E=-4.639309D-01  Symmetry=a'

 Vector   36  Occ=2.000000D+00  E=-4.548045D-01  Symmetry=a'

 Vector   37  Occ=2.000000D+00  E=-4.547953D-01  Symmetry=a"

 Vector   38  Occ=2.000000D+00  E=-4.311648D-01  Symmetry=a"

 Vector   39  Occ=0.000000D+00  E=-5.053154D-02  Symmetry=a'

 Vector   40  Occ=0.000000D+00  E= 2.533369D-02  Symmetry=a"

 Vector   41  Occ=0.000000D+00  E= 2.606680D-02  Symmetry=a'

 Vector   42  Occ=0.000000D+00  E= 3.331453D-02  Symmetry=a'

 Vector   43  Occ=0.000000D+00  E= 5.521126D-02  Symmetry=a'

 Vector   44  Occ=0.000000D+00  E= 7.919316D-02  Symmetry=a'

 Vector   45  Occ=0.000000D+00  E= 8.489968D-02  Symmetry=a"

 Vector   46  Occ=0.000000D+00  E= 8.610834D-02  Symmetry=a'

 Vector   47  Occ=0.000000D+00  E= 9.150762D-02  Symmetry=a'

 Vector   48  Occ=0.000000D+00  E= 9.169235D-02  Symmetry=a"

 Vector   49  Occ=0.000000D+00  E= 1.019876D-01  Symmetry=a'

 Vector   50  Occ=0.000000D+00  E= 1.118243D-01  Symmetry=a'

 Vector   51  Occ=0.000000D+00  E= 1.130382D-01  Symmetry=a"

 Vector   52  Occ=0.000000D+00  E= 1.387399D-01  Symmetry=a"

 Vector   53  Occ=0.000000D+00  E= 1.389145D-01  Symmetry=a'

 Vector   54  Occ=0.000000D+00  E= 1.461974D-01  Symmetry=a'

 Vector   55  Occ=0.000000D+00  E= 1.709669D-01  Symmetry=a'

 Vector   56  Occ=0.000000D+00  E= 1.749201D-01  Symmetry=a'

 Vector   57  Occ=0.000000D+00  E= 1.754490D-01  Symmetry=a"

 Vector   58  Occ=0.000000D+00  E= 2.088960D-01  Symmetry=a'

 Vector   59  Occ=0.000000D+00  E= 2.098013D-01  Symmetry=a"

 Vector   60  Occ=0.000000D+00  E= 2.420067D-01  Symmetry=a'

 Vector   61  Occ=0.000000D+00  E= 2.554563D-01  Symmetry=a'

 Vector   62  Occ=0.000000D+00  E= 2.556764D-01  Symmetry=a"

 Vector   63  Occ=0.000000D+00  E= 2.586405D-01  Symmetry=a'

 Vector   64  Occ=0.000000D+00  E= 2.670192D-01  Symmetry=a"

 Vector   65  Occ=0.000000D+00  E= 2.673607D-01  Symmetry=a'

 Vector   66  Occ=0.000000D+00  E= 2.726194D-01  Symmetry=a'

 Vector   67  Occ=0.000000D+00  E= 2.793800D-01  Symmetry=a"

 Vector   68  Occ=0.000000D+00  E= 2.888596D-01  Symmetry=a'

 Vector   69  Occ=0.000000D+00  E= 2.897753D-01  Symmetry=a"

 Vector   70  Occ=0.000000D+00  E= 2.917265D-01  Symmetry=a'

 Vector   71  Occ=0.000000D+00  E= 3.390156D-01  Symmetry=a'

 Vector   72  Occ=0.000000D+00  E= 3.403999D-01  Symmetry=a"

 Vector   73  Occ=0.000000D+00  E= 3.405633D-01  Symmetry=a'

 Vector   74  Occ=0.000000D+00  E= 3.885812D-01  Symmetry=a'

 Vector   75  Occ=0.000000D+00  E= 3.892707D-01  Symmetry=a"

 Vector   76  Occ=0.000000D+00  E= 4.477100D-01  Symmetry=a"

 Vector   77  Occ=0.000000D+00  E= 4.487359D-01  Symmetry=a'

 Vector   78  Occ=0.000000D+00  E= 4.639574D-01  Symmetry=a'

 Vector   79  Occ=0.000000D+00  E= 5.523478D-01  Symmetry=a'

       Multipole analysis of the density wrt the origin
       ------------------------------------------------

     L   x y z        total         open         nuclear
     -   - - -        -----         ----         -------
     0   0 0 0     -0.000000      0.000000     76.000000

     1   1 0 0      0.003016      0.000000      0.000000
     1   0 1 0     -3.669688      0.000000      0.000000
     1   0 0 1     -0.000000      0.000000      0.000000

     2   2 0 0    -44.790414      0.000000     89.392390
     2   1 1 0     -0.496196      0.000000      0.097844
     2   1 0 1      0.000000      0.000000      0.000000
     2   0 2 0    -32.855365      0.000000    443.057612
     2   0 1 1     -0.000000      0.000000      0.000000

 CCSD total energy / hartree       =     -1997.055175979323394
 Total times  cpu:      170.2s     wall:      195.3s
