============================== echo of input deck ==============================
start ozone_cisd_triplet

echo

geometry units bohr
symmetry c2v
O   0.0000000000        0.0000000000        0.0000000000
O   0.0000000000       -2.0473224350       -1.2595211660
O   0.0000000000        2.0473224350       -1.2595211660
end

BASIS spherical
O    S
     10662.285000000      0.00079900
      1599.709700000      0.00615300
       364.725260000      0.03115700
       103.651790000      0.11559600
        33.905805000      0.30155200
O    S
        12.287469000      0.44487000
         4.756805000      0.24317200
O    S
         1.004271000      1.00000000
O    S
         0.300686000      1.00000000
O    S
         0.090030000      1.00000000
O    P
        34.856463000      0.01564800
         7.843131000      0.09819700
         2.306249000      0.30776800
         0.723164000      0.49247000
O    P
         0.214882000      1.00000000
O    P
         0.063850000      1.00000000
O    D
         2.306200000      0.20270000
         0.723200000      0.57910000
O    D
         0.214900000      0.78545000
         0.063900000      0.53387000
END

scf
thresh 1.0e-10
tol2e 1.0e-10
triplet
rohf
end

tce
freeze atomic
cisd
tilesize 20
thresh 1.0d-6
end

task tce energy

================================================================================

 Output coordinates in a.u. (scale by  1.000000000 to convert to a.u.)

  No.       Tag          Charge          X              Y              Z
 ---- ---------------- ---------- -------------- -------------- --------------
    1 O                    8.0000     0.00000000     0.00000000     0.83968078
    2 O                    8.0000     0.00000000    -2.04732243    -0.41984039
    3 O                    8.0000     0.00000000     2.04732243    -0.41984039

         Total SCF energy =   -224.290070010763

 Vector    2  Occ=2.000000D+00  E=-2.070047D+01  Symmetry=b2

 Vector    3  Occ=2.000000D+00  E=-2.070039D+01  Symmetry=a1

 Vector    4  Occ=2.000000D+00  E=-1.741547D+00  Symmetry=a1

 Vector    5  Occ=2.000000D+00  E=-1.428746D+00  Symmetry=b2

 Vector    6  Occ=2.000000D+00  E=-1.080168D+00  Symmetry=a1

 Vector    7  Occ=2.000000D+00  E=-8.077181D-01  Symmetry=a1

 Vector    8  Occ=2.000000D+00  E=-7.980928D-01  Symmetry=b1

 Vector    9  Occ=2.000000D+00  E=-7.837970D-01  Symmetry=b2

 Vector   10  Occ=2.000000D+00  E=-5.545299D-01  Symmetry=a2

 Vector   11  Occ=2.000000D+00  E=-5.138065D-01  Symmetry=b2

 Vector   12  Occ=1.000000D+00  E=-3.346008D-01  Symmetry=a1

 Vector   13  Occ=1.000000D+00  E=-2.549739D-01  Symmetry=b1

 Vector   14  Occ=0.000000D+00  E= 1.117819D-01  Symmetry=b2

 Vector   15  Occ=0.000000D+00  E= 1.119470D-01  Symmetry=a1

 Vector   16  Occ=0.000000D+00  E= 1.340157D-01  Symmetry=a1

 Vector   17  Occ=0.000000D+00  E= 1.610470D-01  Symmetry=b1

 Vector   18  Occ=0.000000D+00  E= 1.958889D-01  Symmetry=a1

 Vector   19  Occ=0.000000D+00  E= 2.030264D-01  Symmetry=b2

 Vector   20  Occ=0.000000D+00  E= 2.128842D-01  Symmetry=a2

 Vector   21  Occ=0.000000D+00  E= 2.178432D-01  Symmetry=b1

 Vector   22  Occ=0.000000D+00  E= 2.631120D-01  Symmetry=b2

 Vector   23  Occ=0.000000D+00  E= 2.641430D-01  Symmetry=a1

 Vector   24  Occ=0.000000D+00  E= 3.119449D-01  Symmetry=a1

 Vector   25  Occ=0.000000D+00  E= 3.708611D-01  Symmetry=b2

 Vector   26  Occ=0.000000D+00  E= 4.148522D-01  Symmetry=a1

 Vector   27  Occ=0.000000D+00  E= 4.470711D-01  Symmetry=b1

 Vector   28  Occ=0.000000D+00  E= 4.801550D-01  Symmetry=b2

 Vector   29  Occ=0.000000D+00  E= 4.881018D-01  Symmetry=a1

 Vector   30  Occ=0.000000D+00  E= 5.423207D-01  Symmetry=a2

       Multipole analysis of the density wrt the origin
       ------------------------------------------------

     L   x y z        total         open         nuclear
     -   - - -        -----         ----         -------
     0   0 0 0     -0.000000     -2.000000     24.000000

     1   1 0 0      0.000000     -0.000000      0.000000
     1   0 1 0      0.000000      0.000000      0.000000
     1   0 0 1      0.246589     -0.083499     -0.000000

     2   2 0 0    -11.606433     -1.378358      0.000000
     2   1 1 0      0.000000     -0.000000      0.000000
     2   1 0 1     -0.000000      0.000000      0.000000
     2   0 2 0    -13.082630     -6.112814     67.064466
     2   0 1 1     -0.000000      0.000000      0.000000

 Total times  cpu:        3.8s     wall:        7.8s
