============================== echo of input deck ==============================
echo

start naphta_lr_ccsd_ccpvdz

permanent_dir /dtemp/kowalski

memory stack 1800 mb heap 180 mb global 2200 mb noverify

geometry units angstrom
C     0.0000  1.2406  1.3971
C     0.0000  2.4238  0.7058
C     0.0000  2.4238  -0.7058
C     0.0000  1.2406  -1.3971
C     0.0000  -1.2406 -1.3971
C     0.0000  -2.4238 -0.7058
C     0.0000  -2.4238 0.7058
C     0.0000  -1.2406 1.3971
C     0.0000  0.0000  0.7140
C     0.0000  0.0000  -0.7140
H     0.0000  1.2389  2.4800
H     0.0000  3.3648  1.2399
H     0.0000  3.3648  -1.2399
H     0.0000  1.2389  -2.4800
H     0.0000  -1.2389 -2.4800
H     0.0000  -3.3648 -1.2399
H     0.0000  -3.3648 1.2399
H     0.0000  -1.2389 2.4800
end

BASIS spherical
 * library cc-pVDZ
END

scf
thresh 1.0e-8
tol2e 1.0e-8
singlet
rhf
maxiter 200
end

tce
freeze atomic
ccsd
tilesize 40
thresh 1.0d-6
2eorb
2emet 13
attilesize 45
end

set tce:lineresp T
set tce:respaxis T T T
set tce:afreq 0.0

task tce energy

================================================================================

 Output coordinates in angstroms (scale by  1.889725989 to convert to a.u.)

  No.       Tag          Charge          X              Y              Z
 ---- ---------------- ---------- -------------- -------------- --------------
    1 C                    6.0000     1.39710000    -1.24060000     0.00000000
    2 C                    6.0000     0.70580000    -2.42380000     0.00000000
    3 C                    6.0000    -0.70580000    -2.42380000     0.00000000
    4 C                    6.0000    -1.39710000    -1.24060000     0.00000000
    5 C                    6.0000    -1.39710000     1.24060000     0.00000000
    6 C                    6.0000    -0.70580000     2.42380000     0.00000000
    7 C                    6.0000     0.70580000     2.42380000     0.00000000
    8 C                    6.0000     1.39710000     1.24060000     0.00000000
    9 C                    6.0000     0.71400000     0.00000000     0.00000000
   10 C                    6.0000    -0.71400000     0.00000000     0.00000000
   11 H                    1.0000     2.48000000    -1.23890000     0.00000000
   12 H                    1.0000     1.23990000    -3.36480000     0.00000000
   13 H                    1.0000    -1.23990000    -3.36480000     0.00000000
   14 H                    1.0000    -2.48000000    -1.23890000     0.00000000
   15 H                    1.0000    -2.48000000     1.23890000     0.00000000
   16 H                    1.0000    -1.23990000     3.36480000     0.00000000
   17 H                    1.0000     1.23990000     3.36480000     0.00000000
   18 H                    1.0000     2.48000000     1.23890000     0.00000000

         Total SCF energy =   -383.384409633635

 Vector   11  Occ=2.000000D+00  E=-1.177697D+00  Symmetry=ag

 Vector   12  Occ=2.000000D+00  E=-1.111032D+00  Symmetry=b2u

 Vector   13  Occ=2.000000D+00  E=-1.051485D+00  Symmetry=b3u

 Vector   14  Occ=2.000000D+00  E=-1.009212D+00  Symmetry=ag

 Vector   15  Occ=2.000000D+00  E=-9.822622D-01  Symmetry=b1g

 Vector   16  Occ=2.000000D+00  E=-8.543234D-01  Symmetry=b2u

 Vector   17  Occ=2.000000D+00  E=-8.363526D-01  Symmetry=b3u

 Vector   18  Occ=2.000000D+00  E=-8.112168D-01  Symmetry=ag

 Vector   19  Occ=2.000000D+00  E=-7.061376D-01  Symmetry=b1g

 Vector   20  Occ=2.000000D+00  E=-6.987555D-01  Symmetry=b2u

 Vector   21  Occ=2.000000D+00  E=-6.770090D-01  Symmetry=ag

 Vector   22  Occ=2.000000D+00  E=-6.222058D-01  Symmetry=b3u

 Vector   23  Occ=2.000000D+00  E=-6.100702D-01  Symmetry=ag

 Vector   24  Occ=2.000000D+00  E=-5.833139D-01  Symmetry=b2u

 Vector   25  Occ=2.000000D+00  E=-5.821607D-01  Symmetry=b1g

 Vector   26  Occ=2.000000D+00  E=-5.630034D-01  Symmetry=b3u

 Vector   27  Occ=2.000000D+00  E=-5.323749D-01  Symmetry=b1u

 Vector   28  Occ=2.000000D+00  E=-5.223834D-01  Symmetry=b2u

 Vector   29  Occ=2.000000D+00  E=-4.868245D-01  Symmetry=b1g

 Vector   30  Occ=2.000000D+00  E=-4.743617D-01  Symmetry=ag

 Vector   31  Occ=2.000000D+00  E=-4.477745D-01  Symmetry=b3g

 Vector   32  Occ=2.000000D+00  E=-3.844928D-01  Symmetry=b2g

 Vector   33  Occ=2.000000D+00  E=-3.174349D-01  Symmetry=b1u

 Vector   34  Occ=2.000000D+00  E=-2.875752D-01  Symmetry=au

 Vector   35  Occ=0.000000D+00  E= 9.078655D-02  Symmetry=b3g

 Vector   36  Occ=0.000000D+00  E= 1.211546D-01  Symmetry=b2g

 Vector   37  Occ=0.000000D+00  E= 1.793760D-01  Symmetry=b1u

 Vector   38  Occ=0.000000D+00  E= 1.849184D-01  Symmetry=ag

 Vector   39  Occ=0.000000D+00  E= 2.001855D-01  Symmetry=b3u

 Vector   40  Occ=0.000000D+00  E= 2.002024D-01  Symmetry=b2u

 Vector   41  Occ=0.000000D+00  E= 2.350297D-01  Symmetry=ag

 Vector   42  Occ=0.000000D+00  E= 2.399283D-01  Symmetry=b1g

 Vector   43  Occ=0.000000D+00  E= 2.539057D-01  Symmetry=b3u

 Vector   44  Occ=0.000000D+00  E= 2.755048D-01  Symmetry=b2u

 Vector   45  Occ=0.000000D+00  E= 2.780690D-01  Symmetry=au

 Vector   46  Occ=0.000000D+00  E= 2.955340D-01  Symmetry=b1g

 Vector   47  Occ=0.000000D+00  E= 3.896688D-01  Symmetry=b3u

 Vector   48  Occ=0.000000D+00  E= 3.981947D-01  Symmetry=b2g

 Vector   49  Occ=0.000000D+00  E= 4.378708D-01  Symmetry=ag

 Vector   50  Occ=0.000000D+00  E= 4.462460D-01  Symmetry=ag

 Vector   51  Occ=0.000000D+00  E= 4.686908D-01  Symmetry=b3u

 Vector   52  Occ=0.000000D+00  E= 4.693053D-01  Symmetry=b1g

 Vector   53  Occ=0.000000D+00  E= 4.738795D-01  Symmetry=b2u

 Vector   54  Occ=0.000000D+00  E= 5.129428D-01  Symmetry=b2u

       Multipole analysis of the density wrt the origin
       ------------------------------------------------

     L   x y z        total         open         nuclear
     -   - - -        -----         ----         -------
     0   0 0 0     -0.000000      0.000000     68.000000

     1   1 0 0     -0.000000      0.000000     -0.000000
     1   0 1 0     -0.000000      0.000000     -0.000000
     1   0 0 1      0.000000      0.000000      0.000000

     2   2 0 0    -38.300324      0.000000    341.642184
     2   1 1 0     -0.000000      0.000000      0.000000
     2   1 0 1      0.000000      0.000000      0.000000
     2   0 2 0    -38.048074      0.000000    819.061040
     2   0 1 1      0.000000      0.000000      0.000000

 CCSD total energy / hartree       =      -384.727870668422838
 Total times  cpu:      799.4s     wall:      918.0s
