 Output coordinates in angstroms (scale by  1.889725989 to convert to a.u.)

  No.       Tag          Charge          X              Y              Z
 ---- ---------------- ---------- -------------- -------------- --------------
    1 C                    6.0000     0.00000000     0.69835120     2.67372426
    2 C                    6.0000     0.00000000    -0.69835120     2.67372426
    3 C                    6.0000     0.00000000     1.39720197     1.47150203
    4 C                    6.0000     0.00000000    -1.39720197     1.47150203
    5 C                    6.0000     0.00000000     0.70291404     0.26048927
    6 C                    6.0000     0.00000000    -0.70291404     0.26048927
    7 C                    6.0000     0.00000000     1.46297542    -1.02391219
    8 C                    6.0000     0.00000000    -1.46297542    -1.02391219
    9 C                    6.0000     0.00000000     0.66973692    -2.27875069
   10 C                    6.0000     0.00000000    -0.66973692    -2.27875069
   11 O                    8.0000     0.00000000     2.68121008    -1.06033054
   12 O                    8.0000     0.00000000    -2.68121008    -1.06033054
   13 H                    1.0000     0.00000000     1.23980475     3.61279753
   14 H                    1.0000     0.00000000    -1.23980475     3.61279753
   15 H                    1.0000     0.00000000     2.47999912     1.44596507
   16 H                    1.0000     0.00000000    -2.47999912     1.44596507
   17 H                    1.0000     0.00000000     1.25099095    -3.19443433
   18 H                    1.0000     0.00000000    -1.25099095    -3.19443433

         Total SCF energy =   -531.688265637307

 Vector   13  Occ=2.000000D+00  E=-1.432058D+00  Symmetry=a1

 Vector   14  Occ=2.000000D+00  E=-1.430071D+00  Symmetry=b2

 Vector   15  Occ=2.000000D+00  E=-1.198526D+00  Symmetry=a1

 Vector   16  Occ=2.000000D+00  E=-1.135116D+00  Symmetry=a1

 Vector   17  Occ=2.000000D+00  E=-1.057073D+00  Symmetry=b2

 Vector   18  Occ=2.000000D+00  E=-1.055973D+00  Symmetry=a1

 Vector   19  Occ=2.000000D+00  E=-9.532555D-01  Symmetry=b2

 Vector   20  Occ=2.000000D+00  E=-8.850551D-01  Symmetry=a1

 Vector   21  Occ=2.000000D+00  E=-8.759450D-01  Symmetry=b2

 Vector   22  Occ=2.000000D+00  E=-8.070594D-01  Symmetry=a1

 Vector   23  Occ=2.000000D+00  E=-7.435877D-01  Symmetry=a1

 Vector   24  Occ=2.000000D+00  E=-7.389948D-01  Symmetry=b2

 Vector   25  Occ=2.000000D+00  E=-6.990789D-01  Symmetry=a1

 Vector   26  Occ=2.000000D+00  E=-6.729149D-01  Symmetry=a1

 Vector   27  Occ=2.000000D+00  E=-6.494591D-01  Symmetry=b2

 Vector   28  Occ=2.000000D+00  E=-6.308159D-01  Symmetry=a1

 Vector   29  Occ=2.000000D+00  E=-6.268903D-01  Symmetry=b2

 Vector   30  Occ=2.000000D+00  E=-6.039212D-01  Symmetry=a1

 Vector   31  Occ=2.000000D+00  E=-6.036589D-01  Symmetry=b1

 Vector   32  Occ=2.000000D+00  E=-6.021777D-01  Symmetry=b2

 Vector   33  Occ=2.000000D+00  E=-5.547115D-01  Symmetry=a2

 Vector   34  Occ=2.000000D+00  E=-5.478659D-01  Symmetry=b2

 Vector   35  Occ=2.000000D+00  E=-5.215792D-01  Symmetry=a1

 Vector   36  Occ=2.000000D+00  E=-5.128886D-01  Symmetry=b1

 Vector   37  Occ=2.000000D+00  E=-4.566066D-01  Symmetry=a1

 Vector   38  Occ=2.000000D+00  E=-4.313607D-01  Symmetry=b2

 Vector   39  Occ=2.000000D+00  E=-4.055781D-01  Symmetry=b1

 Vector   40  Occ=2.000000D+00  E=-3.663443D-01  Symmetry=b1

 Vector   41  Occ=2.000000D+00  E=-3.610056D-01  Symmetry=a2

 Vector   42  Occ=0.000000D+00  E= 9.452939D-03  Symmetry=a2

 Vector   43  Occ=0.000000D+00  E= 9.612538D-02  Symmetry=b1

 Vector   44  Occ=0.000000D+00  E= 1.185881D-01  Symmetry=a2

 Vector   45  Occ=0.000000D+00  E= 2.121437D-01  Symmetry=b1

 Vector   46  Occ=0.000000D+00  E= 2.310889D-01  Symmetry=a1

 Vector   47  Occ=0.000000D+00  E= 2.461410D-01  Symmetry=a1

 Vector   48  Occ=0.000000D+00  E= 2.655666D-01  Symmetry=a2

 Vector   49  Occ=0.000000D+00  E= 2.843948D-01  Symmetry=b2

 Vector   50  Occ=0.000000D+00  E= 3.040181D-01  Symmetry=b2

 Vector   51  Occ=0.000000D+00  E= 3.126382D-01  Symmetry=a1

 Vector   52  Occ=0.000000D+00  E= 3.202264D-01  Symmetry=b2

 Vector   53  Occ=0.000000D+00  E= 3.649661D-01  Symmetry=a1

 Vector   54  Occ=0.000000D+00  E= 4.007709D-01  Symmetry=a2

 Vector   55  Occ=0.000000D+00  E= 4.048979D-01  Symmetry=b2

 Vector   56  Occ=0.000000D+00  E= 4.303259D-01  Symmetry=b2

 Vector   57  Occ=0.000000D+00  E= 4.331175D-01  Symmetry=a1

 Vector   58  Occ=0.000000D+00  E= 4.520627D-01  Symmetry=a1

 Vector   59  Occ=0.000000D+00  E= 4.825024D-01  Symmetry=a1

 Vector   60  Occ=0.000000D+00  E= 5.272167D-01  Symmetry=b2

       Multipole analysis of the density wrt the origin
       ------------------------------------------------

     L   x y z        total         open         nuclear
     -   - - -        -----         ----         -------
     0   0 0 0     -0.000000      0.000000     82.000000

     1   1 0 0      0.000000      0.000000      0.000000
     1   0 1 0     -0.000000      0.000000      0.000000
     1   0 0 1      0.606431      0.000000      0.000000

     2   2 0 0    -52.710288      0.000000      0.000000
     2   1 1 0      0.000000      0.000000      0.000000
     2   1 0 1     -0.000000      0.000000      0.000000
     2   0 2 0    -64.025249      0.000000    713.501455
     2   0 1 1     -0.000000      0.000000      0.000000

 CCSD total energy / hartree       =      -532.840576515316570
 Total times  cpu:       43.5s     wall:       47.9s
